                 #V_i             Lambda_i1             Lambda_i2             Lambda_i3             Lambda_i4
  4
   1.163548969480E-01   -2.215146967793E+00    4.872448869485E-01   -7.010311284992E-01    3.440660684181E-01
  -4.334731197116E-01   -3.951791565139E-01    5.415871430859E-02   -5.075342617730E-01    7.133906049052E-03
   5.365186361459E-01   -1.456164102740E-01   -1.550984053088E-03    1.572588574881E-02   -2.940175532919E-04
   6.680151762321E-01    1.076494594958E+00    4.127125240539E-01   -1.346303096316E-02   -9.389811703951E-03
 
( 1.00, 0.00)  ( 0.00, 0.00)  ( 0.00, 0.00)  ( 0.00, 0.00)
( 0.00, 0.00)  (-1.00,-0.00)  ( 0.00, 0.00)  ( 0.00,-0.00)
( 0.00, 0.00)  ( 0.00, 0.00)  ( 1.00, 0.00)  ( 0.00, 0.00)
( 0.00, 0.00)  ( 0.00,-0.00)  ( 0.00, 0.00)  (-1.00,-0.00)
 
( 0.00, 0.00)  ( 1.00, 0.00)  ( 0.00, 0.00)  ( 0.00, 0.00)
( 1.00, 0.00)  ( 0.00, 0.00)  ( 0.00, 0.00)  ( 0.00, 0.00)
( 0.00, 0.00)  ( 0.00, 0.00)  ( 0.00, 0.00)  ( 1.00, 0.00)
( 0.00, 0.00)  ( 0.00, 0.00)  ( 1.00, 0.00)  ( 0.00, 0.00)
 
( 0.00, 0.00)  ( 1.00, 0.00)  ( 0.00, 0.00)  ( 0.00, 0.00)
( 1.00, 0.00)  ( 0.00, 0.00)  ( 0.00, 0.00)  ( 0.00, 0.00)
( 0.00, 0.00)  ( 0.00, 0.00)  ( 0.00,-0.00)  (-1.00,-0.00)
( 0.00, 0.00)  ( 0.00, 0.00)  (-1.00,-0.00)  ( 0.00,-0.00)
 
( 0.00, 0.00)  ( 0.00, 0.00)  ( 0.00, 0.00)  ( 1.00, 0.00)
( 0.00, 0.00)  ( 0.00, 0.00)  ( 1.00, 0.00)  ( 0.00, 0.00)
( 0.00, 0.00)  ( 1.00, 0.00)  ( 0.00, 0.00)  ( 0.00, 0.00)
( 1.00, 0.00)  ( 0.00, 0.00)  ( 0.00, 0.00)  ( 0.00, 0.00)
 
