            #Ek_l1_s1              Vk_l1_s1             #Ek_l2_s1              Vk_l2_s1             #Ek_l1_s2              Vk_l1_s2             #Ek_l2_s2              Vk_l2_s2
  -2.063325383596E+00   -3.285491173696E-01   -6.227961385330E+00    2.410927843632E+00   -2.063325383596E+00   -3.285491173696E-01   -6.227961385330E+00    2.410927843632E+00
  -1.675859198890E-01    6.159720975864E-01    1.675859198934E-01    6.159720975903E-01   -1.675859198890E-01    6.159720975864E-01    1.675859198934E-01    6.159720975903E-01
   6.227961385463E+00    2.410927843678E+00    2.063325383595E+00   -3.285491172895E-01    6.227961385463E+00    2.410927843678E+00    2.063325383595E+00   -3.285491172895E-01
