            #Ek_l1_s1              Dk_l1_s1              Vk_l1_s1
  -5.272331694762E+00   -9.835728947522E-01    1.409701989675E+00
  -1.616542525138E-01    1.569475350345E-01    2.359334530697E-01
  -9.981697824020E-01    7.644843178019E+00    8.212834120509E-01
   9.981697824020E-01    7.644843178019E+00    8.212834120509E-01
   1.616542525138E-01    1.569475350345E-01    2.359334530697E-01
   5.272331694762E+00   -9.835728947522E-01    1.409701989675E+00
