                 #V_i             Lambda_i1             Lambda_i2             Lambda_i3             Lambda_i4
  4
   4.408783613919E-01   -7.212455250530E-01    7.251181972748E-02   -1.130337732444E+00    1.616988599720E+00
  -3.664005437752E-01   -6.981144084687E-01    3.960726288900E-01    1.287498967774E-02   -3.161944268919E-01
   4.863670445910E-01    4.612455169602E-02   -2.362347311949E-02    3.389966851330E-02   -4.197317850471E-01
   5.921973948106E-01    1.122291203088E+00    6.788357946853E-01    2.537843041552E-02   -1.497132471820E+00
 
( 1.00, 0.00)  ( 0.00, 0.00)  ( 0.00, 0.00)  ( 0.00, 0.00)
( 0.00, 0.00)  (-1.00,-0.00)  ( 0.00, 0.00)  ( 0.00,-0.00)
( 0.00, 0.00)  ( 0.00, 0.00)  ( 1.00, 0.00)  ( 0.00, 0.00)
( 0.00, 0.00)  ( 0.00,-0.00)  ( 0.00, 0.00)  (-1.00,-0.00)
 
( 0.00, 0.00)  ( 1.00, 0.00)  ( 0.00, 0.00)  ( 0.00, 0.00)
( 1.00, 0.00)  ( 0.00, 0.00)  ( 0.00, 0.00)  ( 0.00, 0.00)
( 0.00, 0.00)  ( 0.00, 0.00)  ( 0.00, 0.00)  ( 1.00, 0.00)
( 0.00, 0.00)  ( 0.00, 0.00)  ( 1.00, 0.00)  ( 0.00, 0.00)
 
( 0.00, 0.00)  ( 1.00, 0.00)  ( 0.00, 0.00)  ( 0.00, 0.00)
( 1.00, 0.00)  ( 0.00, 0.00)  ( 0.00, 0.00)  ( 0.00, 0.00)
( 0.00, 0.00)  ( 0.00, 0.00)  ( 0.00,-0.00)  (-1.00,-0.00)
( 0.00, 0.00)  ( 0.00, 0.00)  (-1.00,-0.00)  ( 0.00,-0.00)
 
( 0.00, 0.00)  ( 0.00, 0.00)  ( 0.00, 0.00)  ( 1.00, 0.00)
( 0.00, 0.00)  ( 0.00, 0.00)  ( 1.00, 0.00)  ( 0.00, 0.00)
( 0.00, 0.00)  ( 1.00, 0.00)  ( 0.00, 0.00)  ( 0.00, 0.00)
( 1.00, 0.00)  ( 0.00, 0.00)  ( 0.00, 0.00)  ( 0.00, 0.00)
 
