            #Ek_l1_s1              Vk_l1_s1             #Ek_l2_s1              Vk_l2_s1             #Ek_l1_s2              Vk_l1_s2             #Ek_l2_s2              Vk_l2_s2
  -2.021427859349E+00   -5.750144839067E-01   -6.206210847545E+00    2.367181987925E+00   -2.021427859349E+00   -5.750144839067E-01   -6.206210847545E+00    2.367181987925E+00
  -5.736566581980E-02    4.435813527946E-01    5.736566581672E-02    4.435813527608E-01   -5.736566581980E-02    4.435813527946E-01    5.736566581672E-02    4.435813527608E-01
   6.206210847941E+00    2.367181987288E+00    2.021427859132E+00   -5.750144846172E-01    6.206210847941E+00    2.367181987288E+00    2.021427859132E+00   -5.750144846172E-01
