            #Ek_l1_s1              Dk_l1_s1              Vk_l1_s1
  -5.249454795410E+00   -1.003321282020E+00    1.505395237261E+00
  -9.426106679244E-02    4.015864578443E-02    2.047405302797E-01
  -9.988215961891E-01    7.646407513868E+00    7.746312978379E-01
   9.988215961891E-01    7.646407513868E+00    7.746312978379E-01
   9.426106679244E-02    4.015864578443E-02    2.047405302797E-01
   5.249454795410E+00   -1.003321282020E+00    1.505395237261E+00
