            #Ek_l1_s1              Dk_l1_s1              Vk_l1_s1
  -3.699999771396E+00   -3.463711723050E-01    3.770924410868E+00
  -1.170394243105E-01    6.079252356996E-02    3.576684257427E-01
  -9.765436465054E-01    7.526194046156E+00    1.705998052347E+00
   9.765436465054E-01    7.526194046156E+00    1.705998052347E+00
   1.170394243105E-01    6.079252356996E-02    3.576684257427E-01
   3.699999771396E+00   -3.463711723050E-01    3.770924410868E+00
