            #Ek_l1_s1              Dk_l1_s1              Vk_l1_s1
  -3.670829724893E+00   -3.645352322300E-03    3.759685906778E+00
  -2.784994061465E+00   -2.116747427126E-01    1.782770413341E+00
  -9.567223902322E-01    7.476256284464E+00    2.294093914377E+00
   9.567223902322E-01    7.476256284464E+00    2.294093914377E+00
   2.784994061465E+00   -2.116747427126E-01    1.782770413341E+00
   3.670829724893E+00   -3.645352322300E-03    3.759685906778E+00
