            #Ek_l1_s1              Dk_l1_s1              Vk_l1_s1
  -3.812526347044E+00    8.048446538119E-02    3.655413514655E+00
  -2.861328753835E+00   -1.728897325759E-01    1.675569379588E+00
  -9.559550412513E-01    7.473685019119E+00    2.312846023519E+00
   9.559550412513E-01    7.473685019119E+00    2.312846023519E+00
   2.861328753835E+00   -1.728897325759E-01    1.675569379588E+00
   3.812526347044E+00    8.048446538119E-02    3.655413514655E+00
