            #Ek_l1_s1              Dk_l1_s1              Vk_l1_s1
  -5.423424008416E+00   -3.838425968512E-02    5.123004043830E+00
  -4.073183311478E+00    1.326467281252E-02    1.485261770670E+00
  -9.579017201106E-01    7.353659506110E+00    2.535164179157E+00
   9.579017201106E-01    7.353659506110E+00    2.535164179157E+00
   4.073183311478E+00    1.326467281252E-02    1.485261770670E+00
   5.423424008416E+00   -3.838425968512E-02    5.123004043830E+00
