            #Ek_l1_s1              Dk_l1_s1              Vk_l1_s1
  -5.486817851538E+00    4.901567894652E-02    5.074520609576E+00
  -4.086197845294E+00    2.769945155255E-02    1.456195883814E+00
  -9.555742141439E-01    7.346486850387E+00    2.587498397518E+00
   9.555742141439E-01    7.346486850387E+00    2.587498397518E+00
   4.086197845294E+00    2.769945155255E-02    1.456195883814E+00
   5.486817851538E+00    4.901567894652E-02    5.074520609576E+00
