            #Ek_l1_s1              Dk_l1_s1              Vk_l1_s1
  -5.547643124618E+00    1.406370738824E-01    5.041136932638E+00
  -4.100794345011E+00    4.212033777192E-02    1.429004103667E+00
  -9.528507320640E-01    7.338056086543E+00    2.653745833799E+00
   9.528507320640E-01    7.338056086543E+00    2.653745833799E+00
   4.100794345011E+00    4.212033777192E-02    1.429004103667E+00
   5.547643124618E+00    1.406370738824E-01    5.041136932638E+00
