            #Ek_l1_s1              Dk_l1_s1              Vk_l1_s1
  -8.935773491040E+00   -7.513529568879E-01    7.657540144655E+00
  -5.311187001611E+00   -1.223072914940E-01    8.583131124881E-01
  -1.012014334077E+00    7.638332527686E+00    3.805687687844E+00
   1.012014334077E+00    7.638332527686E+00    3.805687687844E+00
   5.311187001611E+00   -1.223072914940E-01    8.583131124881E-01
   8.935773491040E+00   -7.513529568879E-01    7.657540144655E+00
