            #Ek_l1_s1              Dk_l1_s1              Vk_l1_s1
  -5.404793654154E+00   -9.674341735234E-01    6.762501432549E-01
  -2.119735719606E-01    7.437886330127E-01   -3.188924665833E-02
  -9.992759974623E-01    7.659988627870E+00    7.273299048576E-01
   9.992759974623E-01    7.659988627870E+00    7.273299048576E-01
   2.119735719606E-01    7.437886330127E-01   -3.188924665833E-02
   5.404793654154E+00   -9.674341735234E-01    6.762501432549E-01
