            #Ek_l1_s1              Vk_l1_s1
  -6.594171192088E-01    1.330719213570E-01
  -2.275890256759E-02    7.230938527303E-04
  -3.933011355737E-03    2.382795150254E-03
   4.412167204325E-03    2.387116258509E-03
   2.292040168724E-02    1.032910808166E-03
   6.600493078600E-01    1.331312121486E-01
