            #Ek_l1_s1              Dk_l1_s1              Vk_l1_s1
  -5.373083090992E+00   -9.795192840596E-01    9.025509209151E-01
  -1.876745182264E-01    5.161048770038E-01    2.331284315455E-01
  -9.991306196594E-01    7.656021789118E+00    7.285649823057E-01
   9.991306196594E-01    7.656021789118E+00    7.285649823057E-01
   1.876745182264E-01    5.161048770038E-01    2.331284315455E-01
   5.373083090992E+00   -9.795192840596E-01    9.025509209151E-01
