                 #V_i             Lambda_i1             Lambda_i2             Lambda_i3             Lambda_i4
  4
   5.718887742132E-01   -8.930753143566E-01    3.884837520875E-02   -1.148605141630E+00    2.749600864404E+00
  -5.339078433090E-01   -1.673257892178E+00    9.233320224583E-01   -5.013862761535E-02   -9.594471806308E-01
  -4.568136565652E-02   -5.069733513433E-01    2.448960640092E-01   -3.293610522247E-01    3.424798019974E-01
   6.063922879158E-01    3.581355433238E+00    4.513885386087E-01   -2.702524312923E-02   -2.412717524740E+00
 
( 1.00, 0.00)  ( 0.00, 0.00)  ( 0.00, 0.00)  ( 0.00, 0.00)
( 0.00, 0.00)  (-1.00,-0.00)  ( 0.00, 0.00)  ( 0.00,-0.00)
( 0.00, 0.00)  ( 0.00, 0.00)  ( 1.00, 0.00)  ( 0.00, 0.00)
( 0.00, 0.00)  ( 0.00,-0.00)  ( 0.00, 0.00)  (-1.00,-0.00)
 
( 0.00, 0.00)  ( 1.00, 0.00)  ( 0.00, 0.00)  ( 0.00, 0.00)
( 1.00, 0.00)  ( 0.00, 0.00)  ( 0.00, 0.00)  ( 0.00, 0.00)
( 0.00, 0.00)  ( 0.00, 0.00)  ( 0.00, 0.00)  ( 1.00, 0.00)
( 0.00, 0.00)  ( 0.00, 0.00)  ( 1.00, 0.00)  ( 0.00, 0.00)
 
( 0.00, 0.00)  ( 1.00, 0.00)  ( 0.00, 0.00)  ( 0.00, 0.00)
( 1.00, 0.00)  ( 0.00, 0.00)  ( 0.00, 0.00)  ( 0.00, 0.00)
( 0.00, 0.00)  ( 0.00, 0.00)  ( 0.00,-0.00)  (-1.00,-0.00)
( 0.00, 0.00)  ( 0.00, 0.00)  (-1.00,-0.00)  ( 0.00,-0.00)
 
( 0.00, 0.00)  ( 0.00, 0.00)  ( 0.00, 0.00)  ( 1.00, 0.00)
( 0.00, 0.00)  ( 0.00, 0.00)  ( 1.00, 0.00)  ( 0.00, 0.00)
( 0.00, 0.00)  ( 1.00, 0.00)  ( 0.00, 0.00)  ( 0.00, 0.00)
( 1.00, 0.00)  ( 0.00, 0.00)  ( 0.00, 0.00)  ( 0.00, 0.00)
 
