            #Ek_l1_s1              Vk_l1_s1             #Ek_l2_s1              Vk_l2_s1             #Ek_l1_s2              Vk_l1_s2             #Ek_l2_s2              Vk_l2_s2
  -2.147986251378E+00    8.562112897658E-02   -1.236080767158E+01    2.821965676330E+00   -2.147986251378E+00    8.562112897658E-02   -1.236080767158E+01    2.821965676330E+00
  -6.393794260303E-01   -9.366984477862E-02    6.394267888546E-01   -9.368019844527E-02   -6.393794260303E-01   -9.366984477862E-02    6.394267888546E-01   -9.368019844527E-02
   1.236041972831E+01    2.821916849793E+00    2.147989933002E+00    8.563205815680E-02    1.236041972831E+01    2.821916849793E+00    2.147989933002E+00    8.563205815680E-02
