            #Ek_l1_s1              Vk_l1_s1
  -7.730029886001E-01    2.558407029682E-01
  -6.859441113207E-02    1.047686448744E-01
  -1.280089849069E-02    6.288343000427E-02
   1.334658500182E-06    3.204441953500E-02
   1.281439802108E-02    6.290800156751E-02
   6.865174082101E-02    1.047826383623E-01
   7.737461743642E-01    2.559073450736E-01
