            #Ek_l1_s1              Vk_l1_s1
  -4.076868353266E-01    2.765046014120E-01
  -8.289638067108E-02    1.475592529053E-01
  -1.347666656789E-02    6.655691154192E-02
   2.726322096903E-06    3.222354973937E-02
   1.350639542721E-02    6.662898931960E-02
   8.309985420397E-02    1.477426962404E-01
   4.083402394518E-01    2.764554661220E-01
