            #Ek_l1_s1              Vk_l1_s1
  -5.473077312425E-01    2.421944822700E-01
  -8.596335513701E-02    1.418901200386E-01
  -1.401398522048E-02    6.818766824495E-02
   1.930640116218E-06    3.246448964662E-02
   1.403855640126E-02    6.824624982313E-02
   8.606991927239E-02    1.419306299848E-01
   5.478745748035E-01    2.422053504630E-01
