            #Ek_l1_s1              Vk_l1_s1
  -6.480190552585E-01    1.945170994948E-01
  -2.541161887408E-02    8.294803024290E-05
  -2.571185948695E-03    1.774585377770E-03
   2.617545746267E-03    1.778990687474E-03
   2.535731264219E-02   -4.903727066652E-05
   6.485905353075E-01    1.945945322989E-01
