 T
           1
           2
         300
  0.13199561187081876       0.13199561187081876       0.13199561187082054       0.13199561187082320       0.13199561191606435       0.13344650482126585       0.13344650482126763       0.13344650482126852       0.13344650482127030       0.13344650483336995       0.24382007396805250       0.24382007396805339       0.24382007396805427       0.24382007396805427       0.24523230794826922       0.24523230794827011       0.24523230794827100       0.24523230794827278       0.24552052750093001        1.0029688780769241        1.0029688780769250        1.0029688780769623        1.0032317954236101        1.0032317954236136        1.0032317954236198        1.1342961167729593        1.1343053667889684        1.1350499487410950        1.1356715263344901        1.1359528596527575        1.1363759360273917        1.1371809129369161        1.1371846392960023        1.1393196302087638        1.1393199926277537        1.1406060198061816        1.1406060225728423        1.2533281659022535        1.2533281659022562        1.2536296404594784        1.2536296404594784        1.2650074149242245        1.3510151603647467        1.3510151603647502        1.3512969203519614        1.3512969203519640        1.3515394619220436        2.1300841766317831        2.1307693123285674        2.1310788489354549        2.1316818629799936        2.1324827404282436        2.1330151641959567        2.1374266729562041        2.1378813693110423        2.1380357661335179        2.1384833808821613        2.1443280199226669        2.1446063166028422        2.1690087786682444        2.1705027415597273        2.2404460216759370        2.2417063507038115        2.2445193796322203        2.2445833761453793        2.2452406932951581        2.2456912312126951        2.2522804513975911        2.2524870111747139        2.3835025074834517        2.5537986027690924        2.5538644760268232        2.5538880085085593        2.6624856825952414        3.0030195794363790        3.0037002663066854        3.0041184172217270        3.0046151677232764        3.0142419293430294        3.0149891707669219        3.0154564039634919        3.1359639894606777        3.1368502908291997        3.1409616539818281        3.1435628313949686        3.1469303953977801        3.1864589651263366        3.2539997188880077        3.2912372028485932        3.2923472559734104        3.2928718330795377        3.3011634974096369        3.3046498281690253        3.3514316711877985        3.3524338301956687        3.3593734993172872        3.3597962297454531        3.5634343110089830        3.5637120886366955        3.6848541257228389        3.6851353422937723        4.0970834837067214        4.1280327858084132        4.1314058449507325        4.1351406666252348        4.1422047590776012        4.1493759057332520        4.1678850177906828        4.1694440956509000        4.1750894250623274        4.1854807055056682        4.2407406019473504        4.2453317089250149        4.2529638984520428        4.5500763776596447        4.5516758610396248        4.5533797647370911        4.5574801086662617        4.5625616341313870        4.6097511455539415        4.6107631107042657        4.6283192944010683        4.6288294398652035        5.0037722317763436        5.0046635705377964        5.0153718436838686        5.0158534279045632        5.1369111267607819        5.1429331970593530        5.1677261052647250        5.1764697664562878        5.1770885759406493        5.2950546770169575        5.3031866318370309        5.3087386990110765        5.3346865668143639        5.3569440291941870        5.5240547008222602        5.5527922079806915        5.5541539620251488        5.5679391734033157        5.5702681152462494        5.5749291274560608        5.6853930277080140        5.8793317427276266        5.8796114076149655        6.1303236603602267        6.1355941420567053        6.1450950573155012        6.1665158342909558        6.1733555604373631        6.1831668569523321        6.1903806351471635        6.2271473253022087        6.3792763744556842        6.3798392119150096        6.5521241029875830        6.5542775819681847        6.5683829903252775        6.6072871755676896        6.6102269283414428        6.6218332352171689        6.6263703227150303        6.8303790016902957        6.8308231409714377        7.0018292504821726        7.0045948831974183        7.0159102389952297        7.1142740207941761        7.1627061954560602        7.1746291287826658        7.1769720694777002        7.1911090742911759        7.2937924281493434        7.3040960005441953        7.3219950381918899        7.3413521860422328        7.4759630180361789        7.5532330337754505        7.5597048764295387        7.5647261493906264        7.5722033905693751        7.5775276663606430        7.6303604731674879        7.7982081360794560        7.7984868439833033        7.8798674884396815        7.9636200838862905        8.1311131207830982        8.1419466826254130        8.1665515078832254        8.1727473134542041        8.1827485428897866        8.1875353245150233        8.1901512133405241        8.3741211280890315        8.3763360379227532        8.3795931865701192        8.3818621624222605        8.3970852424929987        8.3971824016170853        8.5536200867465588        8.6058829591138419        8.6087864978234947        8.6105260089358531        8.6218073118112528        8.8303706176451637        8.8305383258352919        8.8822726771570650        9.0040251560245075        9.0045098596766771        9.0158533028634018        9.1672317776045205        9.1677671085975287        9.1757026187588586        9.1768678764202214        9.1908100934620727        9.1911354941355352        9.2932308271444324        9.3022132263554234        9.3054514351532696        9.3619811771037931        9.3622454185047097        9.5527553292129674        9.5538149433271045        9.5593824455688967        9.5597879788071616        9.5646950711974608        9.5678441507004877        9.5703792389965106        9.5726007953583370        9.7985037843290996        9.7987835274018966        10.009044891051552        10.130452591080571        10.131630958155920        10.165419816284997        10.166443077384210        10.168015801967327        10.172592363963123        10.173688760855230        10.174844670315116        10.183070308331338        10.183104439753922        10.373820327559258        10.374218488515680        10.376947527841956        10.379555545723633        10.379895515405030        10.380001072540471        10.380406495078557        10.397123517173831        10.397399980228048        10.450987982707488        10.610321927836283        10.610322415526404        10.610563329046171        10.610568300244342        11.004004148711420        11.004004148711424        11.004313013560134        11.004313013560136        11.167168981866819        11.167300863516832        11.167473911105883        11.167754382993845        11.167959568596242        11.168216211145817        11.176904000241175        11.176904000316526        11.177562010294562        11.177562010304214        11.362261487335392        11.362261487335417        11.362515998725602        11.362527283616906        11.362527283616913        11.559461655847061        11.559461655847064        11.559461655847073        11.559740669525610        11.559740669525617        11.559740669525620        12.166433193425652        12.166433193425661        12.166433193425664        12.166433193425664        12.166968978993662        12.166968978993669        12.166968978993673        12.166968978993676        12.379931269441199        12.379931269441204        12.379931269441208        12.379931269441229        12.379940006935611        12.380415992519673        12.380415992519680        12.380415992519683        12.380415992519683     
         (4.47873614203230866E-002,0.0000000000000000)         (1.62624167512196403E-002,0.0000000000000000)        (4.11752449105578610E-004,-0.0000000000000000)        (3.50236440653818745E-007,-0.0000000000000000)        (3.73357754451236971E-040,-0.0000000000000000)             (0.19951695325887986,-0.0000000000000000)             (0.15443948631004709,-0.0000000000000000)         (1.72413009661701510E-003,0.0000000000000000)         (2.17831596274428130E-005,0.0000000000000000)        (8.39297321917640134E-035,-0.0000000000000000)         (1.49633167033172635E-010,0.0000000000000000)         (1.81564551128497678E-009,0.0000000000000000)        (4.32240325190450672E-007,-0.0000000000000000)        (2.98927941872854532E-006,-0.0000000000000000)         (4.22600670215572259E-006,0.0000000000000000)         (1.22694683886891055E-005,0.0000000000000000)        (1.88484321134738905E-006,-0.0000000000000000)         (7.38686127826004016E-008,0.0000000000000000)               (0.0000000000000000,0.0000000000000000)        (1.30910846156469577E-003,-0.0000000000000000)        (1.37072838371920272E-004,-0.0000000000000000)         (7.27453549735457830E-012,0.0000000000000000)        (6.99374498333734957E-003,-0.0000000000000000)         (1.27623019361604111E-003,0.0000000000000000)         (1.58235116346287834E-004,0.0000000000000000)        (1.16757481027351896E-010,-0.0000000000000000)        (2.96538800501697122E-032,-0.0000000000000000)        (3.32263285674556020E-010,-0.0000000000000000)        (1.80361843012881108E-027,-0.0000000000000000)         (2.11175539767944980E-026,0.0000000000000000)         (2.19878417563402300E-009,0.0000000000000000)        (1.71383828109274323E-028,-0.0000000000000000)        (2.37878842607728641E-008,-0.0000000000000000)         (2.21753852670197137E-028,0.0000000000000000)        (1.53045271925833812E-010,-0.0000000000000000)        (2.20473477671555369E-024,-0.0000000000000000)        (2.29687732697141687E-010,-0.0000000000000000)        (1.29764877332456882E-012,-0.0000000000000000)        (8.22830089830107291E-013,-0.0000000000000000)         (7.63885554671238427E-012,0.0000000000000000)         (4.76475332054561844E-012,0.0000000000000000)               (0.0000000000000000,0.0000000000000000)         (1.31859509818045005E-008,0.0000000000000000)         (1.23859537446381183E-009,0.0000000000000000)        (2.55675712143107474E-008,-0.0000000000000000)         (5.71524205345124215E-008,0.0000000000000000)               (0.0000000000000000,0.0000000000000000)        (5.77225224180037927E-004,-0.0000000000000000)        (6.52796044763360450E-002,-0.0000000000000000)        (4.36680902838921560E-003,-0.0000000000000000)         (1.80206845561465450E-003,0.0000000000000000)         (3.05504718257794882E-003,0.0000000000000000)        (2.00914672965324750E-004,-0.0000000000000000)         (5.68687347782985907E-004,0.0000000000000000)         (1.22016101478958985E-002,0.0000000000000000)         (5.69613241687402880E-003,0.0000000000000000)        (2.13047625541236841E-003,-0.0000000000000000)        (2.52143357004589094E-005,-0.0000000000000000)         (6.01102204781625311E-004,0.0000000000000000)         (7.22951404659774033E-002,0.0000000000000000)              (0.40076145642547034,0.0000000000000000)         (3.86686128332079823E-008,0.0000000000000000)        (3.39765502090219564E-007,-0.0000000000000000)         (2.99342563368167965E-007,0.0000000000000000)        (2.17469835257233938E-006,-0.0000000000000000)         (2.16250818395448943E-006,0.0000000000000000)         (2.87868753963018617E-010,0.0000000000000000)         (2.45057364559510226E-007,0.0000000000000000)        (1.21736244131708636E-006,-0.0000000000000000)               (0.0000000000000000,0.0000000000000000)         (2.07598173362009366E-005,0.0000000000000000)         (4.01510663496544203E-026,0.0000000000000000)         (1.18018187431460645E-004,0.0000000000000000)               (0.0000000000000000,0.0000000000000000)         (5.20182738725325059E-009,0.0000000000000000)        (8.72963136635749813E-008,-0.0000000000000000)         (4.99377032522627252E-008,0.0000000000000000)        (9.42044295583267734E-007,-0.0000000000000000)        (5.97058130402613228E-014,-0.0000000000000000)         (7.20676644017080513E-009,0.0000000000000000)        (3.85621617764823156E-008,-0.0000000000000000)        (2.66535895941399062E-010,-0.0000000000000000)        (1.68162303152085498E-009,-0.0000000000000000)         (1.26657890158940092E-009,0.0000000000000000)         (2.97734086691487199E-011,0.0000000000000000)         (1.40820939680655174E-010,0.0000000000000000)        (6.80175257052155093E-020,-0.0000000000000000)         (5.87008855701481994E-016,0.0000000000000000)         (9.35330002489409263E-008,0.0000000000000000)         (6.57020405302266913E-007,0.0000000000000000)         (3.04864674277745243E-006,0.0000000000000000)         (1.36093069670568669E-008,0.0000000000000000)        (9.76452831192078258E-007,-0.0000000000000000)        (1.06165549690963694E-009,-0.0000000000000000)         (6.21113790976313860E-009,0.0000000000000000)        (2.29944354766740285E-010,-0.0000000000000000)        (1.78993261715086947E-010,-0.0000000000000000)        (1.80774545983150228E-008,-0.0000000000000000)        (1.03400766052151460E-007,-0.0000000000000000)         (6.34865586367856937E-011,0.0000000000000000)         (3.69052320927581032E-010,0.0000000000000000)         (2.46615665750899441E-019,0.0000000000000000)        (1.32333676027904473E-008,-0.0000000000000000)         (1.27496851244520501E-007,0.0000000000000000)         (8.93304888107441267E-008,0.0000000000000000)         (1.27808621809595816E-007,0.0000000000000000)        (1.12267667922822646E-008,-0.0000000000000000)         (2.76099769793726661E-005,0.0000000000000000)         (3.88886927083844643E-006,0.0000000000000000)         (9.02339731055349247E-006,0.0000000000000000)         (2.92565596535406764E-007,0.0000000000000000)        (1.37288681980716818E-013,-0.0000000000000000)         (2.06528896937244896E-012,0.0000000000000000)        (2.86704287384890963E-013,-0.0000000000000000)         (3.44596849569073992E-009,0.0000000000000000)        (1.88708654802975678E-009,-0.0000000000000000)         (6.73615314590768861E-008,0.0000000000000000)        (1.48069782768364273E-010,-0.0000000000000000)        (3.02204247440755149E-008,-0.0000000000000000)        (8.44775340548562272E-006,-0.0000000000000000)        (1.40897538958367511E-006,-0.0000000000000000)         (4.66566860220526720E-013,0.0000000000000000)        (2.58132515660906765E-010,-0.0000000000000000)        (1.82432262856398452E-011,-0.0000000000000000)         (1.16235807273473918E-010,0.0000000000000000)        (5.77930952457569091E-011,-0.0000000000000000)        (2.95254756384923813E-010,-0.0000000000000000)         (2.22837270793206438E-012,0.0000000000000000)         (1.38945733461256623E-012,0.0000000000000000)         (1.06520898260188446E-010,0.0000000000000000)        (1.22232626194664837E-008,-0.0000000000000000)         (5.06311526622473768E-008,0.0000000000000000)         (3.59843728747595624E-012,0.0000000000000000)        (9.59034318008744818E-011,-0.0000000000000000)        (6.87806122068904987E-012,-0.0000000000000000)         (2.05009973143854195E-014,0.0000000000000000)        (7.67897907193595396E-015,-0.0000000000000000)         (1.90338730450892534E-017,0.0000000000000000)         (5.54124820643079854E-009,0.0000000000000000)        (9.03750332449696266E-011,-0.0000000000000000)         (4.43827729810907987E-010,0.0000000000000000)         (2.43207930421503315E-009,0.0000000000000000)        (1.44926240096954213E-010,-0.0000000000000000)        (5.39491911598883263E-019,-0.0000000000000000)         (2.37483307456706914E-012,0.0000000000000000)         (1.38221786077223574E-011,0.0000000000000000)         (1.32696653525774739E-012,0.0000000000000000)         (2.72252261689316945E-012,0.0000000000000000)        (2.59232382576651430E-012,-0.0000000000000000)         (3.36750695768724529E-010,0.0000000000000000)         (1.81811906291783223E-010,0.0000000000000000)         (2.59339190895371641E-010,0.0000000000000000)         (5.24560438594830357E-012,0.0000000000000000)        (7.73018206858661490E-018,-0.0000000000000000)         (2.63864495434514020E-008,0.0000000000000000)         (1.49502814878975220E-007,0.0000000000000000)        (3.05630699243960787E-015,-0.0000000000000000)        (7.30935774474872623E-015,-0.0000000000000000)         (3.73533393736431994E-016,0.0000000000000000)         (4.04350767603368362E-012,0.0000000000000000)        (1.24923099715411250E-010,-0.0000000000000000)        (5.69938429511099329E-011,-0.0000000000000000)         (5.04057877536946074E-014,0.0000000000000000)        (6.98740065837211747E-015,-0.0000000000000000)        (1.18868808556117252E-015,-0.0000000000000000)         (3.18025206314959262E-018,0.0000000000000000)        (4.37697792325740277E-016,-0.0000000000000000)         (1.24528364740881668E-015,0.0000000000000000)        (2.51348411858733928E-020,-0.0000000000000000)        (2.28983102794360596E-016,-0.0000000000000000)         (2.48232344649610800E-014,0.0000000000000000)        (1.19883526785978833E-012,-0.0000000000000000)         (3.32088681968562415E-013,0.0000000000000000)        (2.43961193649907313E-016,-0.0000000000000000)         (1.30086527774173266E-015,0.0000000000000000)         (2.39158724941698503E-016,0.0000000000000000)        (1.81759040635302572E-019,-0.0000000000000000)        (2.65872498895098518E-023,-0.0000000000000000)        (3.17317004535146554E-014,-0.0000000000000000)         (1.82614345006103920E-014,0.0000000000000000)         (2.78562235837686002E-013,0.0000000000000000)         (4.29581566537541288E-014,0.0000000000000000)        (1.05872550833514165E-014,-0.0000000000000000)        (4.72873131252594926E-024,-0.0000000000000000)        (2.12724335020587575E-014,-0.0000000000000000)         (1.23670735406042806E-013,0.0000000000000000)        (4.52248155541977742E-023,-0.0000000000000000)         (2.79268247046958112E-029,0.0000000000000000)         (4.10423251709044821E-019,0.0000000000000000)         (1.87976478022406820E-018,0.0000000000000000)        (1.22342492563159850E-015,-0.0000000000000000)         (1.06747307347650666E-015,0.0000000000000000)         (8.95161994837054835E-016,0.0000000000000000)         (3.33893460480950652E-016,0.0000000000000000)        (4.32406071908906008E-016,-0.0000000000000000)         (2.18177678641198298E-013,0.0000000000000000)        (1.30808251816025750E-014,-0.0000000000000000)         (3.14673810792860502E-012,0.0000000000000000)         (3.52940554975900487E-015,0.0000000000000000)         (1.05344191859540901E-012,0.0000000000000000)        (1.61548334685091428E-013,-0.0000000000000000)         (1.17324074003083729E-023,0.0000000000000000)         (4.14732758413939275E-019,0.0000000000000000)        (1.00383901464956448E-020,-0.0000000000000000)         (8.46384383970135909E-019,0.0000000000000000)        (3.17940270531712804E-020,-0.0000000000000000)         (8.65942679074950007E-024,0.0000000000000000)        (5.17249768913148831E-023,-0.0000000000000000)        (1.73189589723526980E-034,-0.0000000000000000)        (4.56988281073253248E-023,-0.0000000000000000)         (1.87545393042904915E-023,0.0000000000000000)         (6.15426805591089440E-023,0.0000000000000000)         (1.55490446281249856E-019,0.0000000000000000)        (2.88179482011394614E-020,-0.0000000000000000)         (2.43463498734455849E-021,0.0000000000000000)         (1.54283728090801612E-019,0.0000000000000000)        (3.79296155957526208E-020,-0.0000000000000000)        (1.12579462163279982E-020,-0.0000000000000000)        (2.18582169324038142E-025,-0.0000000000000000)        (3.01961031930712206E-027,-0.0000000000000000)         (9.78348763957915860E-026,0.0000000000000000)         (1.05479433188023974E-017,0.0000000000000000)         (6.13198336651445461E-017,0.0000000000000000)         (1.87410649661328746E-023,0.0000000000000000)        (1.66519566546813132E-022,-0.0000000000000000)         (1.60004796923681565E-020,0.0000000000000000)        (8.68658716307050233E-021,-0.0000000000000000)         (2.00060402397050676E-021,0.0000000000000000)        (9.24350682759535678E-021,-0.0000000000000000)         (3.87984474988829006E-022,0.0000000000000000)         (2.98567270066073624E-022,0.0000000000000000)         (2.09697634649746573E-024,0.0000000000000000)         (1.22252036884665857E-023,0.0000000000000000)               (0.0000000000000000,0.0000000000000000)         (2.18996033267170886E-029,0.0000000000000000)         (1.76138872617456580E-029,0.0000000000000000)        (1.17054301337471780E-028,-0.0000000000000000)        (2.80663052158603753E-026,-0.0000000000000000)         (3.28051083129448296E-027,0.0000000000000000)        (2.03222593076427097E-026,-0.0000000000000000)         (7.39067282263326356E-028,0.0000000000000000)         (8.69685677820426199E-029,0.0000000000000000)         (1.97141297365640448E-028,0.0000000000000000)        (3.17160515045149376E-027,-0.0000000000000000)         (2.40774295210407801E-025,0.0000000000000000)         (6.15534007952094138E-026,0.0000000000000000)         (3.44549254264987262E-035,0.0000000000000000)         (4.40455914744631853E-025,0.0000000000000000)        (1.31907694412849785E-024,-0.0000000000000000)        (4.67886294166273232E-025,-0.0000000000000000)        (4.15191079566774157E-024,-0.0000000000000000)        (1.60612056854388516E-024,-0.0000000000000000)        (9.60320589924865315E-024,-0.0000000000000000)               (0.0000000000000000,0.0000000000000000)         (9.18960995611352935E-029,0.0000000000000000)        (2.01189144352085841E-046,-0.0000000000000000)         (3.32622680798532197E-028,0.0000000000000000)               (0.0000000000000000,0.0000000000000000)         (1.51032687971238225E-031,0.0000000000000000)         (6.80009793075560303E-028,0.0000000000000000)        (8.28814703502930527E-029,-0.0000000000000000)         (3.85266571749271968E-031,0.0000000000000000)        (4.63681125984483743E-027,-0.0000000000000000)         (2.25207597707088218E-029,0.0000000000000000)         (2.29844646961063113E-027,0.0000000000000000)        (7.71944682283050687E-028,-0.0000000000000000)         (1.37213892590694017E-029,0.0000000000000000)        (1.85969538855589043E-028,-0.0000000000000000)         (3.74291326889778296E-039,0.0000000000000000)        (5.28590611798351241E-028,-0.0000000000000000)         (6.87607391942117462E-037,0.0000000000000000)        (1.84177297408360074E-028,-0.0000000000000000)        (2.93524533270104319E-033,-0.0000000000000000)        (5.59513670750368042E-030,-0.0000000000000000)               (0.0000000000000000,0.0000000000000000)        (4.56237070511946434E-031,-0.0000000000000000)         (8.50857607882552193E-029,0.0000000000000000)        (8.58570500533693539E-028,-0.0000000000000000)        (2.07126393898782297E-029,-0.0000000000000000)         (1.30504244538029898E-032,0.0000000000000000)         (6.04827575214978450E-028,0.0000000000000000)        (1.13655241163796192E-030,-0.0000000000000000)        (4.09006668794400331E-033,-0.0000000000000000)         (1.02020832987052008E-035,0.0000000000000000)        (2.02131478451773985E-032,-0.0000000000000000)         (5.46707282168586593E-034,0.0000000000000000)        (2.25334918371659828E-030,-0.0000000000000000)         (2.52752559275227025E-035,0.0000000000000000)        (4.46785738520839122E-032,-0.0000000000000000)         (1.13718722281182480E-030,0.0000000000000000)         (3.32548154059947739E-037,0.0000000000000000)         (5.75668627882346608E-032,0.0000000000000000)         (1.63364367206580475E-029,0.0000000000000000)        (2.51605652780216795E-030,-0.0000000000000000)         (7.43768030704117436E-027,0.0000000000000000)               (0.0000000000000000,0.0000000000000000)         (3.34943545677855557E-031,0.0000000000000000)        (2.83031721713700974E-029,-0.0000000000000000)        (5.37717325101273585E-031,-0.0000000000000000)         (1.02056802972969240E-027,0.0000000000000000)
         300